integrator              = md      
nsteps                  = 50000000
dt                      = 0.002  
nstenergy               = 5000     
nstlog                  = 5000   
nstxout-compressed      = 5000   
continuation            = yes      
constraint_algorithm    = lincs    
constraints             = h-bonds
lincs_iter              = 1        
lincs_order             = 4  
cutoff-scheme           = Verlet
ns_type                 = grid     
nstlist                 = 20       
rlist                   = 1.2
vdwtype                 = cutoff
vdw-modifier            = force-switch
rvdw-switch             = 1.0
rvdw                    = 1.2     
coulombtype             = PME     
rcoulomb                = 1.2
pme_order               = 4      
fourierspacing          = 0.16     
tcoupl                  = V-rescale                   
tc-grps                 = Protein Water_and_ions    
tau_t                   = 0.1   0.1                    
ref_t                   = 310   310                    
pcoupl                  = Parrinello-Rahman            
pcoupltype              = isotropic                    
tau_p                   = 2.0                           
ref_p                   = 1.0                           
compressibility         = 4.5e-5                        
pbc                     = xyz   
DispCorr                = no
gen_vel                 = no        
